 Gaussian 09, Revision C.01,
 Gaussian 09:  EM64L-G09RevC.01 23-Sep-2011

 -----------------------------------------
 # opt freq b3lyp/6-31g* geom=connectivity
 -----------------------------------------

 99/9=1/99;
 -------------------
 Title Card Required
 -------------------
 Charge =  0 Multiplicity = 1

 SCF Done:  E(RB3LYP) =  -310.766274637     A.U. after   14 cycles
 SCF Done:  E(RB3LYP) =  -310.791783190     A.U. after   13 cycles
 SCF Done:  E(RB3LYP) =  -310.799645055     A.U. after   13 cycles
 SCF Done:  E(RB3LYP) =  -310.799888947     A.U. after   11 cycles
 SCF Done:  E(RB3LYP) =  -310.799909609     A.U. after    9 cycles
 SCF Done:  E(RB3LYP) =  -310.799910037     A.U. after    8 cycles
 Optimization completed.
    -- Stationary point found.
 Normal termination of Gaussian 09 at Tue Mar  2 16:23:05 2021.

 --------------------------------------------------------------------
 #N Geom=AllCheck Guess=TCheck SCRF=Check GenChk RB3LYP/6-31G(d) Freq
 --------------------------------------------------------------------

 Structure from the checkpoint file:  1.chk
 -------------------
 Title Card Required
 -------------------
 Charge =  0 Multiplicity = 1

                         Standard orientation:
 ---------------------------------------------------------------------
 Center     Atomic      Atomic             Coordinates (Angstroms)
 Number     Number       Type             X           Y           Z
 ---------------------------------------------------------------------
      1          6           0        0.523204    4.164365    0.000000
      2          1           0        1.609297    4.104940    0.000000
      3          1           0        0.089138    5.159354    0.000000
      4          6           0       -0.241640    3.059001    0.000000
      5          1           0       -1.327093    3.164901    0.000000
      6          6           0        0.271760    1.705630    0.000000
      7          1           0        1.356598    1.591311    0.000000
      8          6           0       -0.505662    0.594435    0.000000
      9          1           0       -1.590331    0.713200    0.000000
     10          6           0        0.000000   -0.754123    0.000000
     11          1           0        1.084369   -0.866351    0.000000
     12          6           0       -0.787057   -1.857601    0.000000
     13          1           0       -1.866372   -1.705182    0.000000
     14          6           0       -0.350985   -3.250858    0.000000
     15          1           0       -1.159176   -3.981667    0.000000
     16          6           0        0.909513   -3.716730    0.000000
     17          1           0        1.777191   -3.061870    0.000000
     18          1           0        1.111581   -4.783352    0.000000
 ---------------------------------------------------------------------

 SCF Done:  E(RB3LYP) =  -310.799910037     A.U. after    1 cycles

 The electronic state is 1-A'.
 Alpha  occ. eigenvalues --  -10.19384 -10.19342 -10.19336 -10.19311 -10.19255
 Alpha  occ. eigenvalues --  -10.19224 -10.18409 -10.18352  -0.82281  -0.79599
 Alpha  occ. eigenvalues --   -0.75651  -0.70706  -0.63456  -0.58192  -0.55822
 Alpha  occ. eigenvalues --   -0.52917  -0.48869  -0.46691  -0.44300  -0.42995
 Alpha  occ. eigenvalues --   -0.39643  -0.38563  -0.35986  -0.35369  -0.34577
 Alpha  occ. eigenvalues --   -0.34462  -0.31129  -0.26105  -0.19629
 Alpha virt. eigenvalues --   -0.06055   0.01378   0.08199   0.09216   0.11039
 Alpha virt. eigenvalues --    0.11599   0.12452   0.12745   0.15623   0.16104
 Alpha virt. eigenvalues --    0.18564   0.19689   0.20364   0.20902   0.29345

 Mulliken atomic charges:
              1
     1  C   -0.355835
     2  H    0.141243
     3  H    0.144690
     4  C   -0.059810
     5  H    0.126439
     6  C   -0.124861
     7  H    0.124075
     8  C   -0.120920
     9  H    0.124685
    10  C   -0.097151
    11  H    0.125189
    12  C   -0.149803
    13  H    0.124385
    14  C   -0.076588
    15  H    0.127134
    16  C   -0.338879
    17  H    0.141204
    18  H    0.144802
 Sum of Mulliken atomic charges =   0.00000

 Dipole moment (field-independent basis, Debye):
    X=             -0.0990    Y=             -0.0309    Z=              0.0000  Tot=              0.1037
 Quadrupole moment (field-independent basis, Debye-Ang):
   XX=            -43.5947   YY=            -44.3844   ZZ=            -53.6918
   XY=              0.2012   XZ=              0.0000   YZ=              0.0000

  Exact polarizability:  84.019  10.729 238.311   0.000   0.000  29.113
 Approx polarizability: 137.516  36.409 386.969   0.000   0.000  42.475

 ******    1 imaginary frequencies (negative Signs) ******

                     1                      2                      3
                    A"                     A"                     A'
 Frequencies --   -41.8900                81.9733                90.7292
 Red. masses --     1.6402                 3.4032                 3.5777
 Frc consts  --     0.0017                 0.0135                 0.0174
 IR Inten    --     0.0137                 0.3585                 0.8804

                     4                      5                      6
                    A"                     A'                     A"
 Frequencies --   175.8411               218.3261               248.8238
 Red. masses --     2.2663                 3.3225                 2.1013
 Frc consts  --     0.0413                 0.0933                 0.0767
 IR Inten    --     0.3020                 1.9715                 0.5531

                     7                      8                      9
                    A'                     A"                     A'
 Frequencies --   327.8356               334.4845               434.3719
 Red. masses --     3.5881                 2.1484                 3.4640
 Frc consts  --     0.2272                 0.1416                 0.3851
 IR Inten    --     0.0385                 0.1488                 2.3985

                    10                     11                     12
                    A'                     A"                     A'
 Frequencies --   515.6757               634.4569               634.9833
 Red. masses --     2.8158                 1.3688                 2.6583
 Frc consts  --     0.4412                 0.3246                 0.6315
 IR Inten    --    12.2977                 9.4095                 1.9184

                    13                     14                     15
                    A"                     A"                     A"
 Frequencies --   672.2245               864.6421               910.1366
 Red. masses --     1.5203                 1.7441                 1.6410
 Frc consts  --     0.4048                 0.7682                 0.8009
 IR Inten    --     0.2581                 1.0035                 3.0651

                    16                     17                     18
                    A"                     A"                     A'
 Frequencies --   914.9053               921.2553               962.7091
 Red. masses --     1.4408                 1.6645                 1.6925
 Frc consts  --     0.7106                 0.8323                 0.9242
 IR Inten    --    53.0510                17.2958                 1.4750

                    19                     20                     21
                    A"                     A'                     A"
 Frequencies --   966.2445              1005.1297              1019.2814
 Red. masses --     1.1442                 2.1865                 1.0998
 Frc consts  --     0.6294                 1.3015                 0.6732
 IR Inten    --     0.0000                 0.3160                 9.4520

                    22                     23                     24
                    A"                     A"                     A'
 Frequencies --  1037.1180              1059.8330              1077.5285
 Red. masses --     1.1166                 1.0904                 1.5467
 Frc consts  --     0.7076                 0.7216                 1.0581
 IR Inten    --    10.5323                56.2924                 6.6652

                    25                     26                     27
                    A'                     A'                     A'
 Frequencies --  1189.8997              1221.1828              1274.0498
 Red. masses --     2.0593                 2.1470                 1.2942
 Frc consts  --     1.7178                 1.8865                 1.2377
 IR Inten    --     3.2791                 7.1670                 0.0142

                    28                     29                     30
                    A'                     A'                     A'
 Frequencies --  1323.5937              1330.7859              1342.8597
 Red. masses --     1.5816                 1.3507                 1.3589
 Frc consts  --     1.6325                 1.4094                 1.4438
 IR Inten    --     7.6560                 2.4813                 0.3304

                    31                     32                     33
                    A'                     A'                     A'
 Frequencies --  1364.7449              1378.0615              1474.7999
 Red. masses --     1.3561                 1.3526                 1.2440
 Frc consts  --     1.4881                 1.5135                 1.5941
 IR Inten    --     3.3928                 1.7076                 0.5666

                    34                     35                     36
                    A'                     A'                     A'
 Frequencies --  1478.9118              1649.8686              1666.5304
 Red. masses --     1.2960                 4.3863                 3.9121
 Frc consts  --     1.6701                 7.0348                 6.4015
 IR Inten    --     5.9918                 2.1488                 4.9596

                    37                     38                     39
                    A'                     A'                     A'
 Frequencies --  1704.9623              1711.9245              3143.6457
 Red. masses --     4.3792                 3.9054                 1.0890
 Frc consts  --     7.5002                 6.7435                 6.3410
 IR Inten    --    10.8853                 3.0048                 0.8812

                    40                     41                     42
                    A'                     A'                     A'
 Frequencies --  3145.2049              3146.7395              3154.6817
 Red. masses --     1.0863                 1.0873                 1.0856
 Frc consts  --     6.3316                 6.3436                 6.3658
 IR Inten    --     0.4671                17.4741                12.3417

                    43                     44                     45
                    A'                     A'                     A'
 Frequencies --  3159.1947              3165.0231              3165.9806
 Red. masses --     1.0826                 1.0819                 1.0648
 Frc consts  --     6.3664                 6.3854                 6.2882
 IR Inten    --    32.4619                63.7478                 7.0598

                    46                     47                     48
                    A'                     A'                     A'
 Frequencies --  3171.1052              3248.8651              3249.6157
 Red. masses --     1.0719                 1.1158                 1.1156
 Frc consts  --     6.3505                 6.9392                 6.9413
 IR Inten    --     6.6073                15.5274                15.4194

 - Thermochemistry -
 -------------------
 Temperature   298.150 Kelvin.  Pressure   1.00000 Atm.
 Atom     1 has atomic number  6 and mass  12.00000

 Molecular mass:   106.07825 amu.
 Principal axes and moments of inertia in atomic units:
                           1         2         3
     Eigenvalues --   163.963872891.243853055.20772
           X            0.01295   0.99992   0.00000
           Y            0.99992  -0.01295   0.00000
           Z            0.00000   0.00000   1.00000
 This molecule is an asymmetric top.
 Rotational symmetry number  1.
 Rotational temperatures (Kelvin)      0.52825     0.02996     0.02835
 Rotational constants (GHZ):          11.00694     0.62421     0.59071
    1 imaginary frequencies ignored.
 Zero-point vibrational energy     400574.0 (Joules/Mol)
                                   95.73948 (Kcal/Mol)
 Warning -- explicit consideration of   9 degrees of freedom as
           vibrations may cause significant error
 Vibrational temperatures:    117.94   130.54   253.00   314.12   358.00
          (Kelvin)            471.68   481.25   624.96   741.94   912.84
                              913.60   967.18  1244.03  1309.48  1316.34
                             1325.48  1385.12  1390.21  1446.16  1466.52
                             1492.18  1524.86  1550.32  1712.00  1757.01
                             1833.07  1904.35  1914.70  1932.07  1963.56
                             1982.72  2121.91  2127.82  2373.79  2397.76
                             2453.06  2463.07  4523.00  4525.24  4527.45
                             4538.88  4545.37  4553.76  4555.13  4562.51
                             4674.39  4675.47

 Zero-point correction=                           0.152571 (Hartree/Particle)
 Thermal correction to Energy=                    0.160778
 Thermal correction to Enthalpy=                  0.161722
 Thermal correction to Gibbs Free Energy=         0.119544
 Sum of electronic and zero-point Energies=           -310.647339
 Sum of electronic and thermal Energies=              -310.639132
 Sum of electronic and thermal Enthalpies=            -310.638188
 Sum of electronic and thermal Free Energies=         -310.680366

                     E (Thermal)             CV                S
                      KCal/Mol        Cal/Mol-Kelvin    Cal/Mol-Kelvin
 Total                  100.890             29.990             88.771
 Electronic               0.000              0.000              0.000
 Translational            0.889              2.981             39.894
 Rotational               0.889              2.981             28.762
 Vibrational             99.112             24.028             20.115
 Vibration     1          0.600              1.961              3.843
 Vibration     2          0.602              1.956              3.644
 Vibration     3          0.628              1.872              2.372
 Vibration     4          0.646              1.813              1.973
 Vibration     5          0.662              1.765              1.739
 Vibration     6          0.711              1.620              1.271
 Vibration     7          0.716              1.607              1.238
 Vibration     8          0.795              1.395              0.844
 Vibration     9          0.871              1.215              0.620

 Normal termination of Gaussian 09 at Tue Mar  2 16:33:57 2021.
 Normal termination of Gaussian 09 at Tue Mar  2 16:16:31 2021.
