 Gaussian 09, Revision C.01,
 Gaussian 09:  EM64L-G09RevC.01 23-Sep-2011

 -----------------------------------------
 # opt freq b3lyp/6-31g* geom=connectivity
 -----------------------------------------

 99/9=1/99;
 -------------------
 Title Card Required
 -------------------
 Charge =  0 Multiplicity = 1

 SCF Done:  E(RB3LYP) =  -310.746672018     A.U. after   14 cycles
 SCF Done:  E(RB3LYP) =  -310.777781316     A.U. after   12 cycles
 SCF Done:  E(RB3LYP) =  -310.793199539     A.U. after   14 cycles
 SCF Done:  E(RB3LYP) =  -310.793829356     A.U. after   12 cycles
 SCF Done:  E(RB3LYP) =  -310.793889311     A.U. after   11 cycles
 SCF Done:  E(RB3LYP) =  -310.793889625     A.U. after    7 cycles
 Optimization completed.
    -- Stationary point found.
 Normal termination of Gaussian 09 at Tue Mar  2 16:26:57 2021.

 --------------------------------------------------------------------
 #N Geom=AllCheck Guess=TCheck SCRF=Check GenChk RB3LYP/6-31G(d) Freq
 --------------------------------------------------------------------

 Structure from the checkpoint file:  2.chk
 -------------------
 Title Card Required
 -------------------
 Charge =  0 Multiplicity = 1

                         Standard orientation:
 ---------------------------------------------------------------------
 Center     Atomic      Atomic             Coordinates (Angstroms)
 Number     Number       Type             X           Y           Z
 ---------------------------------------------------------------------
      1          6           0       -3.655201    1.699645    0.000000
      2          1           0       -4.080332    0.698490    0.000000
      3          1           0       -4.357098    2.527730    0.000000
      4          6           0       -2.325647    1.899075    0.000000
      5          1           0       -1.941531    2.919905    0.000000
      6          6           0       -1.337412    0.841664    0.000000
      7          1           0       -1.720554   -0.178619    0.000000
      8          6           0        0.000000    1.064795    0.000000
      9          1           0        0.329630    2.103988    0.000000
     10          6           0        1.067023    0.079385    0.000000
     11          1           0        2.073375    0.495854    0.000000
     12          6           0        0.935828   -1.269201    0.000000
     13          1           0       -0.067664   -1.692103    0.000000
     14          6           0        2.017600   -2.250818    0.000000
     15          1           0        1.688073   -3.289481    0.000000
     16          6           0        3.341425   -2.019319    0.000000
     17          1           0        3.762287   -1.017227    0.000000
     18          1           0        4.052122   -2.839899    0.000000
 ---------------------------------------------------------------------

 SCF Done:  E(RB3LYP) =  -310.793889625     A.U. after    1 cycles

 The electronic state is 1-A'.
 Alpha  occ. eigenvalues --  -10.19387 -10.19351 -10.19347 -10.19299 -10.19235
 Alpha  occ. eigenvalues --  -10.19195 -10.18401 -10.18337  -0.82169  -0.79494
 Alpha  occ. eigenvalues --   -0.75482  -0.70389  -0.64120  -0.58202  -0.56141
 Alpha  occ. eigenvalues --   -0.51984  -0.48984  -0.46743  -0.44304  -0.43015
 Alpha  occ. eigenvalues --   -0.39803  -0.38742  -0.35671  -0.35188  -0.34368
 Alpha  occ. eigenvalues --   -0.34339  -0.31083  -0.26000  -0.19571
 Alpha virt. eigenvalues --   -0.06393   0.01361   0.07420   0.08976   0.10874
 Alpha virt. eigenvalues --    0.12384   0.12819   0.13090   0.14387   0.16574
 Alpha virt. eigenvalues --    0.18640   0.19939   0.21553   0.24042   0.29343

 Mulliken atomic charges:
              1
     1  C   -0.358804
     2  H    0.140997
     3  H    0.144882
     4  C   -0.056882
     5  H    0.126910
     6  C   -0.098890
     7  H    0.126545
     8  C   -0.150399
     9  H    0.124778
    10  C   -0.122109
    11  H    0.124707
    12  C   -0.125752
    13  H    0.125777
    14  C   -0.076102
    15  H    0.126941
    16  C   -0.339163
    17  H    0.141701
    18  H    0.144863
 Sum of Mulliken atomic charges =   0.00000

 Dipole moment (field-independent basis, Debye):
    X=              0.0140    Y=              0.0068    Z=              0.0000  Tot=              0.0156
 Quadrupole moment (field-independent basis, Debye-Ang):
   XX=            -44.4291   YY=            -43.5176   ZZ=            -53.6648
   XY=              0.4510   XZ=              0.0000   YZ=              0.0000

  Exact polarizability: 194.912 -62.225 116.509   0.000   0.000  29.017
 Approx polarizability: 322.449 -91.841 177.171   0.000   0.000  42.288

 ******    1 imaginary frequencies (negative Signs) ******

                     1                      2                      3
                    A"                     A"                     A'
 Frequencies --   -47.2757                32.5719               102.8070
 Red. masses --     2.0400                 1.7860                 3.6119
 Frc consts  --     0.0027                 0.0011                 0.0225
 IR Inten    --     0.0760                 0.0009                 0.1833

                     4                      5                      6
                    A"                     A"                     A'
 Frequencies --   124.9927               181.4878               220.9068
 Red. masses --     2.1283                 2.7452                 3.3614
 Frc consts  --     0.0196                 0.0533                 0.0966
 IR Inten    --     1.2596                 0.0867                 1.0670

                     7                      8                      9
                    A'                     A"                     A'
 Frequencies --   290.2147               350.5979               469.0524
 Red. masses --     3.6837                 2.1397                 3.0149
 Frc consts  --     0.1828                 0.1550                 0.3908
 IR Inten    --     6.2309                 0.0943                 5.4976

                    10                     11                     12
                    A'                     A"                     A"
 Frequencies --   525.9517               626.8310               659.0919
 Red. masses --     2.8645                 1.3973                 1.4848
 Frc consts  --     0.4669                 0.3235                 0.3800
 IR Inten    --    14.8613                 7.2848                 0.2634

                    13                     14                     15
                    A'                     A"                     A"
 Frequencies --   691.2428               855.9557               905.5304
 Red. masses --     3.4560                 1.8761                 1.7235
 Frc consts  --     0.9729                 0.8098                 0.8327
 IR Inten    --     0.2350                 4.7232                 5.3676

                    16                     17                     18
                    A"                     A"                     A'
 Frequencies --   913.5932               919.0593               952.4812
 Red. masses --     1.4080                 1.5990                 1.8065
 Frc consts  --     0.6924                 0.7958                 0.9656
 IR Inten    --    50.6697                14.2002                 0.0826

                    19                     20                     21
                    A"                     A'                     A"
 Frequencies --   986.3791               999.4794              1015.7753
 Red. masses --     1.1391                 2.1230                 1.1082
 Frc consts  --     0.6530                 1.2495                 0.6737
 IR Inten    --    13.8814                 0.3599                23.6914

                    22                     23                     24
                    A"                     A'                     A"
 Frequencies --  1037.2798              1048.0654              1054.0222
 Red. masses --     1.1181                 1.7056                 1.0958
 Frc consts  --     0.7088                 1.1038                 0.7173
 IR Inten    --     9.5178                 2.5724                28.9237

                    25                     26                     27
                    A'                     A'                     A'
 Frequencies --  1141.5927              1217.9030              1309.9014
 Red. masses --     1.7035                 2.2958                 1.3208
 Frc consts  --     1.3080                 2.0064                 1.3353
 IR Inten    --    10.9817                 5.9188                 0.4559

                    28                     29                     30
                    A'                     A'                     A'
 Frequencies --  1321.8957              1332.4220              1357.9842
 Red. masses --     1.4206                 1.3491                 1.2990
 Frc consts  --     1.4626                 1.4111                 1.4114
 IR Inten    --     0.3221                 1.9847                 3.5709

                    31                     32                     33
                    A'                     A'                     A'
 Frequencies --  1371.3177              1385.9278              1475.4389
 Red. masses --     1.4516                 1.3638                 1.2599
 Frc consts  --     1.6083                 1.5434                 1.6159
 IR Inten    --    18.5924                 2.0609                 0.4262

                    34                     35                     36
                    A'                     A'                     A'
 Frequencies --  1478.7860              1635.2918              1674.0163
 Red. masses --     1.2731                 4.3952                 3.7730
 Frc consts  --     1.6402                 6.9250                 6.2296
 IR Inten    --     3.0999                 7.1648                 5.0362

                    37                     38                     39
                    A'                     A'                     A'
 Frequencies --  1701.3051              1716.9858              3145.0100
 Red. masses --     3.8317                 4.0723                 1.0879
 Frc consts  --     6.5345                 7.0733                 6.3398
 IR Inten    --     6.1822                 0.1139                 3.0678

                    40                     41                     42
                    A'                     A'                     A'
 Frequencies --  3147.5700              3151.4106              3161.9662
 Red. masses --     1.0845                 1.0846                 1.0877
 Frc consts  --     6.3305                 6.3465                 6.4071
 IR Inten    --     2.9059                54.8075                16.6837

                    43                     44                     45
                    A'                     A'                     A'
 Frequencies --  3165.0737              3166.3339              3172.8152
 Red. masses --     1.0772                 1.0664                 1.0759
 Frc consts  --     6.3581                 6.2989                 6.3815
 IR Inten    --     0.9481                 5.5769                47.8435

                    46                     47                     48
                    A'                     A'                     A'
 Frequencies --  3174.1802              3249.8881              3250.1645
 Red. masses --     1.0835                 1.1157                 1.1159
 Frc consts  --     6.4317                 6.9425                 6.9452
 IR Inten    --    15.9331                15.8622                14.5395

 - Thermochemistry -
 -------------------
 Temperature   298.150 Kelvin.  Pressure   1.00000 Atm.
 Atom     1 has atomic number  6 and mass  12.00000

 Molecular mass:   106.07825 amu.
 Principal axes and moments of inertia in atomic units:
                           1         2         3
     Eigenvalues --   178.339862703.258492881.59835
           X            0.82786   0.56093   0.00000
           Y           -0.56093   0.82786   0.00000
           Z            0.00000   0.00000   1.00000
 This molecule is an asymmetric top.
 Rotational symmetry number  1.
 Rotational temperatures (Kelvin)      0.48567     0.03204     0.03006
 Rotational constants (GHZ):          10.11967     0.66762     0.62630
    1 imaginary frequencies ignored.
 Zero-point vibrational energy     399962.7 (Joules/Mol)
                                   95.59339 (Kcal/Mol)
 Warning -- explicit consideration of   9 degrees of freedom as
           vibrations may cause significant error
 Vibrational temperatures:     46.86   147.92   179.84   261.12   317.84
          (Kelvin)            417.55   504.43   674.86   756.73   901.87
                              948.29   994.54  1231.53  1302.85  1314.46
                             1322.32  1370.41  1419.18  1438.03  1461.47
                             1492.41  1507.93  1516.50  1642.50  1752.29
                             1884.65  1901.91  1917.06  1953.83  1973.02
                             1994.04  2122.82  2127.64  2352.82  2408.53
                             2447.80  2470.36  4524.96  4528.65  4534.17
                             4549.36  4553.83  4555.64  4564.97  4566.93
                             4675.86  4676.26

 Zero-point correction=                           0.152338 (Hartree/Particle)
 Thermal correction to Energy=                    0.160795
 Thermal correction to Enthalpy=                  0.161739
 Thermal correction to Gibbs Free Energy=         0.118271
 Sum of electronic and zero-point Energies=           -310.641552
 Sum of electronic and thermal Energies=              -310.633094
 Sum of electronic and thermal Enthalpies=            -310.632150
 Sum of electronic and thermal Free Energies=         -310.675618

                     E (Thermal)             CV                S
                      KCal/Mol        Cal/Mol-Kelvin    Cal/Mol-Kelvin
 Total                  100.901             30.088             91.486
 Electronic               0.000              0.000              0.000
 Translational            0.889              2.981             39.894
 Rotational               0.889              2.981             28.720
 Vibrational             99.123             24.126             22.872
 Vibration     1          0.594              1.983              5.666
 Vibration     2          0.605              1.947              3.400
 Vibration     3          0.610              1.928              3.022
 Vibration     4          0.630              1.865              2.313
 Vibration     5          0.648              1.809              1.952
 Vibration     6          0.686              1.692              1.473
 Vibration     7          0.728              1.574              1.164
 Vibration     8          0.826              1.319              0.740
 Vibration     9          0.881              1.193              0.596

 Optimization completed.
    -- Stationary point found.
 Normal termination of Gaussian 09 at Tue Mar  2 16:35:57 2021.
