 Gaussian 09, Revision C.01,
 Gaussian 09:  EM64L-G09RevC.01 23-Sep-2011

 -----------------------------------------
 # opt freq b3lyp/6-31g* geom=connectivity
 -----------------------------------------

 99/9=1/99;
 -------------------
 Title Card Required
 -------------------
 Charge =  0 Multiplicity = 1

 SCF Done:  E(RB3LYP) =  -310.722429576     A.U. after   14 cycles
 SCF Done:  E(RB3LYP) =  -310.762507280     A.U. after   14 cycles
 SCF Done:  E(RB3LYP) =  -310.789139917     A.U. after   14 cycles
 SCF Done:  E(RB3LYP) =  -310.793556234     A.U. after   12 cycles
 SCF Done:  E(RB3LYP) =  -310.793875731     A.U. after   12 cycles
 SCF Done:  E(RB3LYP) =  -310.793943714     A.U. after   11 cycles
 SCF Done:  E(RB3LYP) =  -310.793960379     A.U. after    9 cycles
 Optimization completed.
    -- Stationary point found.
 Normal termination of Gaussian 09 at Tue Mar  2 16:31:46 2021.

 --------------------------------------------------------------------
 #N Geom=AllCheck Guess=TCheck SCRF=Check GenChk RB3LYP/6-31G(d) Freq
 --------------------------------------------------------------------

 Structure from the checkpoint file:  3.chk
 -------------------
 Title Card Required
 -------------------
 Charge =  0 Multiplicity = 1

                         Standard orientation:
 ---------------------------------------------------------------------
 Center     Atomic      Atomic             Coordinates (Angstroms)
 Number     Number       Type             X           Y           Z
 ---------------------------------------------------------------------
      1          6           0       -1.871485    3.094774    0.000000
      2          1           0       -0.870377    3.520087    0.000000
      3          1           0       -2.699007    3.797289    0.000000
      4          6           0       -2.071911    1.765762    0.000000
      5          1           0       -3.093088    1.382571    0.000000
      6          6           0       -1.013656    0.776075    0.000000
      7          1           0        0.000000    1.166768    0.000000
      8          6           0       -1.254100   -0.559059    0.000000
      9          1           0       -2.306369   -0.847743    0.000000
     10          6           0       -0.348618   -1.696678    0.000000
     11          1           0       -0.876116   -2.649579    0.000000
     12          6           0        1.007670   -1.804760    0.000000
     13          1           0        1.402353   -2.820936    0.000000
     14          6           0        2.027493   -0.774311    0.000000
     15          1           0        1.720294    0.266647    0.000000
     16          6           0        3.344203   -1.048584    0.000000
     17          1           0        3.712214   -2.072423    0.000000
     18          1           0        4.092517   -0.262000    0.000000
 ---------------------------------------------------------------------

 SCF Done:  E(RB3LYP) =  -310.793960379     A.U. after    1 cycles

 The electronic state is 1-A'.
 Alpha  occ. eigenvalues --  -10.19462 -10.19388 -10.19358 -10.19333 -10.19290
 Alpha  occ. eigenvalues --  -10.19270 -10.18822 -10.18409  -0.82050  -0.79595
 Alpha  occ. eigenvalues --   -0.75653  -0.71022  -0.63653  -0.58412  -0.55513
 Alpha  occ. eigenvalues --   -0.53746  -0.48358  -0.46775  -0.44320  -0.42010
 Alpha  occ. eigenvalues --   -0.41009  -0.38247  -0.36782  -0.35354  -0.34303
 Alpha  occ. eigenvalues --   -0.33400  -0.31172  -0.26079  -0.19888
 Alpha virt. eigenvalues --   -0.06176   0.01326   0.07490   0.08655   0.10870
 Alpha virt. eigenvalues --    0.12454   0.12731   0.13216   0.13563   0.17467
 Alpha virt. eigenvalues --    0.18371   0.19424   0.21521   0.26354   0.28191

 Mulliken atomic charges:
              1
     1  C   -0.359317
     2  H    0.140560
     3  H    0.145143
     4  C   -0.057605
     5  H    0.127658
     6  C   -0.101266
     7  H    0.130697
     8  C   -0.145423
     9  H    0.123612
    10  C   -0.152041
    11  H    0.126261
    12  C   -0.130594
    13  H    0.125222
    14  C   -0.050267
    15  H    0.134767
    16  C   -0.349715
    17  H    0.145398
    18  H    0.146910
 Sum of Mulliken atomic charges =   0.00000

 Dipole moment (field-independent basis, Debye):
    X=              0.1071    Y=             -0.0403    Z=              0.0000  Tot=              0.1144
 Quadrupole moment (field-independent basis, Debye-Ang):
   XX=            -43.2811   YY=            -44.1102   ZZ=            -53.7133
   XY=              0.1334   XZ=              0.0000   YZ=              0.0000

  Exact polarizability: 151.246 -43.364 142.588   0.000   0.000  28.999
 Approx polarizability: 240.520 -65.257 238.985   0.000   0.000  42.348

 ******    1 imaginary frequencies (negative Signs) ******

                     1                      2                      3
                    A"                     A'                     A"
 Frequencies --  -129.0318               110.2246               116.0233
 Red. masses --     1.5626                 3.7080                 2.0420
 Frc consts  --     0.0153                 0.0265                 0.0162
 IR Inten    --     0.0339                 0.3059                 0.1708

                     4                      5                      6
                    A"                     A'                     A"
 Frequencies --   140.5334               214.0862               234.9926
 Red. masses --     2.9109                 3.4052                 2.4992
 Frc consts  --     0.0339                 0.0920                 0.0813
 IR Inten    --     0.6059                 0.7797                 0.0120

                     7                      8                      9
                    A'                     A"                     A'
 Frequencies --   326.3885               442.7298               449.1953
 Red. masses --     3.2791                 1.8763                 2.8412
 Frc consts  --     0.2058                 0.2167                 0.3378
 IR Inten    --     7.7684                 4.0901                 0.6890

                    10                     11                     12
                    A'                     A"                     A"
 Frequencies --   491.2235               621.1405               694.6270
 Red. masses --     3.5284                 1.2337                 1.6369
 Frc consts  --     0.5016                 0.2804                 0.4653
 IR Inten    --     5.2175                 1.5173                12.0150

                    13                     14                     15
                    A'                     A"                     A"
 Frequencies --   748.1048               818.0409               892.2177
 Red. masses --     4.3523                 1.5357                 1.8222
 Frc consts  --     1.4351                 0.6055                 0.8546
 IR Inten    --     9.0816                10.3536                 1.2558

                    16                     17                     18
                    A'                     A"                     A"
 Frequencies --   917.2644               917.8983               928.7702
 Red. masses --     2.0060                 1.4347                 1.3821
 Frc consts  --     0.9944                 0.7122                 0.7024
 IR Inten    --     2.6589                31.9387                47.5441

                    19                     20                     21
                    A'                     A"                     A"
 Frequencies --   969.6048               982.1133               989.2907
 Red. masses --     1.5225                 1.1968                 1.1886
 Frc consts  --     0.8433                 0.6802                 0.6854
 IR Inten    --     0.3079                 6.7750                 1.5495

                    22                     23                     24
                    A"                     A'                     A"
 Frequencies --  1031.1979              1045.5918              1054.9158
 Red. masses --     1.1390                 2.1761                 1.1004
 Frc consts  --     0.7136                 1.4017                 0.7215
 IR Inten    --     1.2175                 0.3611                37.5885

                    25                     26                     27
                    A'                     A'                     A'
 Frequencies --  1170.0503              1218.5560              1301.8129
 Red. masses --     1.7205                 2.2018                 1.3794
 Frc consts  --     1.3877                 1.9263                 1.3773
 IR Inten    --     4.1684                 7.0892                 0.3748

                    28                     29                     30
                    A'                     A'                     A'
 Frequencies --  1323.2573              1334.6145              1359.4518
 Red. masses --     1.2268                 1.3793                 1.2870
 Frc consts  --     1.2657                 1.4475                 1.4014
 IR Inten    --     0.0302                 0.5783                 8.2628

                    31                     32                     33
                    A'                     A'                     A'
 Frequencies --  1378.2862              1432.1036              1478.1204
 Red. masses --     1.3036                 1.3008                 1.2627
 Frc consts  --     1.4591                 1.5719                 1.6254
 IR Inten    --     3.3430                 0.5484                 1.2063

                    34                     35                     36
                    A'                     A'                     A'
 Frequencies --  1506.5833              1636.1061              1665.1228
 Red. masses --     1.3957                 5.8418                 3.6170
 Frc consts  --     1.8665                 9.2135                 5.9087
 IR Inten    --     2.7027                 5.5448                 9.1928

                    37                     38                     39
                    A'                     A'                     A'
 Frequencies --  1686.9824              1717.4416              3132.5200
 Red. masses --     3.7838                 4.2944                 1.0849
 Frc consts  --     6.3445                 7.4631                 6.2722
 IR Inten    --     5.1355                 0.4093                14.6341

                    40                     41                     42
                    A'                     A'                     A'
 Frequencies --  3143.8846              3149.9937              3163.1461
 Red. masses --     1.0860                 1.0839                 1.0620
 Frc consts  --     6.3243                 6.3368                 6.2608
 IR Inten    --     5.7343                27.3420                10.8755

                    43                     44                     45
                    A'                     A'                     A'
 Frequencies --  3165.8898              3167.9187              3194.7059
 Red. masses --     1.0656                 1.0883                 1.0896
 Frc consts  --     6.2928                 6.4349                 6.5522
 IR Inten    --    12.6548                36.3600                 8.8225

                    46                     47                     48
                    A'                     A'                     A'
 Frequencies --  3219.3888              3249.6761              3250.6684
 Red. masses --     1.0878                 1.1155                 1.1141
 Frc consts  --     6.6428                 6.9407                 6.9360
 IR Inten    --     9.9673                15.0430                18.3189

 - Thermochemistry -
 -------------------
 Temperature   298.150 Kelvin.  Pressure   1.00000 Atm.
 Atom     1 has atomic number  6 and mass  12.00000

 Molecular mass:   106.07825 amu.
 Principal axes and moments of inertia in atomic units:
                           1         2         3
     Eigenvalues --   449.059802013.037582462.09738
           X            0.76421   0.64496   0.00000
           Y           -0.64496   0.76421   0.00000
           Z            0.00000   0.00000   1.00000
 This molecule is an asymmetric top.
 Rotational symmetry number  1.
 Warning -- assumption of classical behavior for rotation
           may cause significant error
 Rotational temperatures (Kelvin)      0.19288     0.04303     0.03518
 Rotational constants (GHZ):           4.01893     0.89653     0.73301
    1 imaginary frequencies ignored.
 Zero-point vibrational energy     401840.3 (Joules/Mol)
                                   96.04214 (Kcal/Mol)
 Warning -- explicit consideration of   9 degrees of freedom as
           vibrations may cause significant error
 Vibrational temperatures:    158.59   166.93   202.20   308.02   338.10
          (Kelvin)            469.60   636.99   646.29   706.76   893.68
                              999.41  1076.35  1176.98  1283.70  1319.74
                             1320.65  1336.29  1395.04  1413.04  1423.37
                             1483.66  1504.37  1517.79  1683.44  1753.23
                             1873.02  1903.87  1920.21  1955.95  1983.04
                             2060.48  2126.68  2167.63  2353.99  2395.74
                             2427.19  2471.01  4506.99  4523.34  4532.13
                             4551.06  4555.00  4557.92  4596.46  4631.98
                             4675.55  4676.98

 Zero-point correction=                           0.153053 (Hartree/Particle)
 Thermal correction to Energy=                    0.161123
 Thermal correction to Enthalpy=                  0.162067
 Thermal correction to Gibbs Free Energy=         0.120142
 Sum of electronic and zero-point Energies=           -310.640907
 Sum of electronic and thermal Energies=              -310.632837
 Sum of electronic and thermal Enthalpies=            -310.631893
 Sum of electronic and thermal Free Energies=         -310.673819

                     E (Thermal)             CV                S
                      KCal/Mol        Cal/Mol-Kelvin    Cal/Mol-Kelvin
 Total                  101.106             29.777             88.240
 Electronic               0.000              0.000              0.000
 Translational            0.889              2.981             39.894
 Rotational               0.889              2.981             29.189
 Vibrational             99.329             23.816             19.157
 Vibration     1          0.606              1.941              3.265
 Vibration     2          0.608              1.936              3.166
 Vibration     3          0.615              1.913              2.797
 Vibration     4          0.644              1.820              2.009
 Vibration     5          0.655              1.787              1.840
 Vibration     6          0.710              1.623              1.278
 Vibration     7          0.802              1.377              0.818
 Vibration     8          0.808              1.363              0.798
 Vibration     9          0.847              1.269              0.680

 Normal termination of Gaussian 09 at Tue Mar  2 16:38:13 2021.
 Normal termination of Gaussian 09 at Tue Mar  2 16:24:51 2021.
