 Gaussian 09, Revision C.01,
 Gaussian 09:  EM64L-G09RevC.01 23-Sep-2011

 -----------------------------------------
 # opt freq b3lyp/6-31g* geom=connectivity
 -----------------------------------------

 99/9=1/99;
 -------------------
 Title Card Required
 -------------------
 Charge =  0 Multiplicity = 1

 SCF Done:  E(RB3LYP) =  -310.656010446     A.U. after   14 cycles
 SCF Done:  E(RB3LYP) =  -310.707079800     A.U. after   13 cycles
 SCF Done:  E(RB3LYP) =  -310.742458414     A.U. after   15 cycles
 SCF Done:  E(RB3LYP) =  -310.759766279     A.U. after   14 cycles
 SCF Done:  E(RB3LYP) =  -310.759063527     A.U. after   14 cycles
 SCF Done:  E(RB3LYP) =  -310.761560034     A.U. after   12 cycles
 SCF Done:  E(RB3LYP) =  -310.761970804     A.U. after   11 cycles
 SCF Done:  E(RB3LYP) =  -310.762012060     A.U. after   10 cycles
 SCF Done:  E(RB3LYP) =  -310.762042729     A.U. after   10 cycles
 SCF Done:  E(RB3LYP) =  -310.762045412     A.U. after    8 cycles
 SCF Done:  E(RB3LYP) =  -310.762045680     A.U. after    7 cycles
 Optimization completed.
    -- Stationary point found.
 Normal termination of Gaussian 09 at Tue Mar  2 16:37:47 2021.

 --------------------------------------------------------------------
 #N Geom=AllCheck Guess=TCheck SCRF=Check GenChk RB3LYP/6-31G(d) Freq
 --------------------------------------------------------------------

 Structure from the checkpoint file:  4.chk
 -------------------
 Title Card Required
 -------------------
 Charge =  0 Multiplicity = 1

                         Standard orientation:
 ---------------------------------------------------------------------
 Center     Atomic      Atomic             Coordinates (Angstroms)
 Number     Number       Type             X           Y           Z
 ---------------------------------------------------------------------
      1          6           0       -1.716986   -2.726680    0.000000
      2          1           0       -2.803174   -2.788097    0.000000
      3          1           0       -1.175234   -3.667561    0.000000
      4          6           0       -1.079286   -1.542817    0.000000
      5          1           0        0.000000   -1.534274    0.000000
      6          6           0       -1.776165   -0.278540    0.000000
      7          1           0       -2.861042   -0.393987    0.000000
      8          6           0       -1.362973    1.019682    0.000000
      9          1           0       -2.215259    1.698904    0.000000
     10          6           0       -0.140346    1.821837    0.000000
     11          1           0       -0.447775    2.867716    0.000000
     12          6           0        1.226862    1.759983    0.000000
     13          1           0        1.642822    2.767527    0.000000
     14          6           0        2.334330    0.803732    0.000000
     15          1           0        3.289915    1.329752    0.000000
     16          6           0        2.438455   -0.534871    0.000000
     17          1           0        1.604212   -1.218356    0.000000
     18          1           0        3.422183   -0.995580    0.000000
 ---------------------------------------------------------------------

 SCF Done:  E(RB3LYP) =  -310.762045680     A.U. after    1 cycles

 The electronic state is 1-A'.
 Alpha  occ. eigenvalues --  -10.19914 -10.19761 -10.19711 -10.19626 -10.19614
 Alpha  occ. eigenvalues --  -10.19379 -10.18933 -10.18677  -0.81490  -0.79314
 Alpha  occ. eigenvalues --   -0.75912  -0.71660  -0.64695  -0.60149  -0.55398
 Alpha  occ. eigenvalues --   -0.51892  -0.48479  -0.46607  -0.45155  -0.42905
 Alpha  occ. eigenvalues --   -0.40260  -0.37540  -0.37068  -0.33952  -0.33693
 Alpha  occ. eigenvalues --   -0.32832  -0.31059  -0.26275  -0.20302
 Alpha virt. eigenvalues --   -0.06703   0.00416   0.07157   0.07869   0.10273
 Alpha virt. eigenvalues --    0.11143   0.13179   0.14553   0.14940   0.18318
 Alpha virt. eigenvalues --    0.20316   0.20733   0.22482   0.26544   0.29293

 Mulliken atomic charges:
              1
     1  C   -0.356498
     2  H    0.145752
     3  H    0.147306
     4  C   -0.028820
     5  H    0.127679
     6  C   -0.134512
     7  H    0.125544
     8  C   -0.152619
     9  H    0.125904
    10  C   -0.126096
    11  H    0.125364
    12  C   -0.154298
    13  H    0.125911
    14  C   -0.062920
    15  H    0.125824
    16  C   -0.350391
    17  H    0.171383
    18  H    0.145486
 Sum of Mulliken atomic charges =   0.00000

 Dipole moment (field-independent basis, Debye):
    X=             -0.0179    Y=             -0.1162    Z=              0.0000  Tot=              0.1176
 Quadrupole moment (field-independent basis, Debye-Ang):
   XX=            -43.1438   YY=            -43.1668   ZZ=            -53.7319
   XY=              0.2903   XZ=              0.0000   YZ=              0.0000

  Exact polarizability: 135.418  23.670 136.858   0.000   0.000  28.796
 Approx polarizability: 215.477  41.069 236.716   0.000   0.000  41.712

 ******    2 imaginary frequencies (negative Signs) ******

                     1                      2                      3
                    A"                     A"                     A"
 Frequencies --  -294.6819              -140.7594                89.1955
 Red. masses --     1.4310                 1.7960                 2.6521
 Frc consts  --     0.0732                 0.0210                 0.0124
 IR Inten    --     0.0111                 0.0000                 0.1337

                     4                      5                      6
                    A'                     A'                     A"
 Frequencies --    97.3371               220.0692               282.8333
 Red. masses --     3.8541                 4.0926                 2.9972
 Frc consts  --     0.0215                 0.1168                 0.1413
 IR Inten    --     0.1560                 0.0919                 0.3557

                     7                      8                      9
                    A'                     A"                     A'
 Frequencies --   306.1506               450.9029               454.0182
 Red. masses --     2.8849                 1.7269                 3.1489
 Frc consts  --     0.1593                 0.2069                 0.3824
 IR Inten    --     1.9882                 0.7728                 2.2066

                    10                     11                     12
                    A"                     A'                     A"
 Frequencies --   589.6871               622.2602               702.0491
 Red. masses --     1.3514                 3.4106                 1.9365
 Frc consts  --     0.2769                 0.7781                 0.5623
 IR Inten    --    26.0413                 2.6123                 1.2282

                    13                     14                     15
                    A'                     A"                     A'
 Frequencies --   743.6179               781.2039               821.0249
 Red. masses --     3.9857                 1.5995                 3.8283
 Frc consts  --     1.2985                 0.5751                 1.5204
 IR Inten    --     0.8758                11.9860                14.2628

                    16                     17                     18
                    A"                     A"                     A'
 Frequencies --   867.6480               887.3851               925.7585
 Red. masses --     1.4810                 1.3098                 1.9916
 Frc consts  --     0.6569                 0.6077                 1.0056
 IR Inten    --     0.1929                27.0533                 7.2506

                    19                     20                     21
                    A"                     A"                     A"
 Frequencies --   929.7872               971.9245              1015.5385
 Red. masses --     1.3837                 1.2267                 1.2337
 Frc consts  --     0.7048                 0.6828                 0.7496
 IR Inten    --    40.8280                13.7763                 1.9690

                    22                     23                     24
                    A'                     A"                     A"
 Frequencies --  1027.1333              1029.2776              1047.0394
 Red. masses --     2.0092                 1.2090                 1.1268
 Frc consts  --     1.2489                 0.7546                 0.7278
 IR Inten    --     2.7522                 0.3258                12.4548

                    25                     26                     27
                    A'                     A'                     A'
 Frequencies --  1102.7191              1198.4934              1311.4774
 Red. masses --     1.6905                 2.0109                 1.3900
 Frc consts  --     1.2112                 1.7018                 1.4086
 IR Inten    --     8.1203                 0.4222                 1.7363

                    28                     29                     30
                    A'                     A'                     A'
 Frequencies --  1367.9940              1397.2225              1436.7317
 Red. masses --     1.2761                 1.2003                 1.2638
 Frc consts  --     1.4070                 1.3807                 1.5370
 IR Inten    --     2.0438                 0.5958                 0.3126

                    31                     32                     33
                    A'                     A'                     A'
 Frequencies --  1478.0062              1493.0762              1512.4938
 Red. masses --     1.1407                 1.1371                 1.3070
 Frc consts  --     1.4681                 1.4936                 1.7616
 IR Inten    --     0.7899                 2.3674                 2.9626

                    34                     35                     36
                    A'                     A'                     A'
 Frequencies --  1535.4151              1612.6696              1657.3131
 Red. masses --     1.3348                 7.4119                 3.4778
 Frc consts  --     1.8540                11.3572                 5.6281
 IR Inten    --     0.9411                 6.9719                 6.2644

                    37                     38                     39
                    A'                     A'                     A'
 Frequencies --  1702.4775              1709.4367              3108.6826
 Red. masses --     4.2706                 3.5890                 1.0820
 Frc consts  --     7.2929                 6.1792                 6.1605
 IR Inten    --     0.1218                 1.2566                 3.0919

                    40                     41                     42
                    A'                     A'                     A'
 Frequencies --  3122.6307              3132.3962              3146.8180
 Red. masses --     1.0841                 1.0862                 1.0886
 Frc consts  --     6.2280                 6.2794                 6.3511
 IR Inten    --     2.3659                 5.7286                64.6527

                    43                     44                     45
                    A'                     A'                     A'
 Frequencies --  3157.9917              3163.7231              3194.9158
 Red. masses --     1.0885                 1.0604                 1.0716
 Frc consts  --     6.3958                 6.2535                 6.4445
 IR Inten    --    60.0575                 9.1093                 9.7879

                    46                     47                     48
                    A'                     A'                     A'
 Frequencies --  3245.7670              3287.9711              3329.3991
 Red. masses --     1.1135                 1.0961                 1.0917
 Frc consts  --     6.9115                 6.9815                 7.1298
 IR Inten    --     7.1361                11.2089                 7.4613

 - Thermochemistry -
 -------------------
 Temperature   298.150 Kelvin.  Pressure   1.00000 Atm.
 Atom     1 has atomic number  6 and mass  12.00000

 Molecular mass:   106.07825 amu.
 Principal axes and moments of inertia in atomic units:
                           1         2         3
     Eigenvalues --   646.797811430.589132077.38694
           X            0.78181  -0.62352   0.00000
           Y            0.62352   0.78181   0.00000
           Z            0.00000   0.00000   1.00000
 This molecule is an asymmetric top.
 Rotational symmetry number  1.
 Warning -- assumption of classical behavior for rotation
           may cause significant error
 Rotational temperatures (Kelvin)      0.13391     0.06054     0.04169
 Rotational constants (GHZ):           2.79027     1.26154     0.86876
    2 imaginary frequencies ignored.
 Zero-point vibrational energy     402350.0 (Joules/Mol)
                                   96.16395 (Kcal/Mol)
 Warning -- explicit consideration of   8 degrees of freedom as
           vibrations may cause significant error
 Vibrational temperatures:    128.33   140.05   316.63   406.93   440.48
          (Kelvin)            648.75   653.23   848.43   895.29  1010.09
                             1069.90  1123.98  1181.27  1248.35  1276.75
                             1331.96  1337.75  1398.38  1461.13  1477.81
                             1480.90  1506.45  1586.56  1724.36  1886.92
                             1968.24  2010.29  2067.13  2126.52  2148.20
                             2176.14  2209.12  2320.27  2384.50  2449.48
                             2459.50  4472.70  4492.76  4506.81  4527.56
                             4543.64  4551.89  4596.77  4669.93  4730.65
                             4790.26

 Zero-point correction=                           0.153247 (Hartree/Particle)
 Thermal correction to Energy=                    0.160652
 Thermal correction to Enthalpy=                  0.161597
 Thermal correction to Gibbs Free Energy=         0.120897
 Sum of electronic and zero-point Energies=           -310.608799
 Sum of electronic and thermal Energies=              -310.601393
 Sum of electronic and thermal Enthalpies=            -310.600449
 Sum of electronic and thermal Free Energies=         -310.641148

                     E (Thermal)             CV                S
                      KCal/Mol        Cal/Mol-Kelvin    Cal/Mol-Kelvin
 Total                  100.811             27.857             85.658
 Electronic               0.000              0.000              0.000
 Translational            0.889              2.981             39.894
 Rotational               0.889              2.981             29.043
 Vibrational             99.033             21.895             16.722
 Vibration     1          0.602              1.957              3.678
 Vibration     2          0.603              1.951              3.507
 Vibration     3          0.647              1.811              1.959
 Vibration     4          0.682              1.705              1.516
 Vibration     5          0.697              1.662              1.383
 Vibration     6          0.810              1.359              0.793
 Vibration     7          0.812              1.352              0.784
 Vibration     8          0.947              1.054              0.468

 Optimization completed.
    -- Stationary point found.
 Normal termination of Gaussian 09 at Tue Mar  2 16:40:48 2021.
