 Gaussian 09, Revision C.01,
 Gaussian 09:  EM64L-G09RevC.01 23-Sep-2011

 -----------------------------------------
 # opt freq b3lyp/6-31g* geom=connectivity
 -----------------------------------------

 99/9=1/99;
 -------------------
 Title Card Required
 -------------------
 Charge =  0 Multiplicity = 1

 SCF Done:  E(RB3LYP) =  -310.613743968     A.U. after   14 cycles
 SCF Done:  E(RB3LYP) =  -310.635544167     A.U. after   15 cycles
 SCF Done:  E(RB3LYP) =  -310.688570340     A.U. after   14 cycles
 SCF Done:  E(RB3LYP) =  -310.719834513     A.U. after   13 cycles
 SCF Done:  E(RB3LYP) =  -310.728382370     A.U. after   13 cycles
 SCF Done:  E(RB3LYP) =  -310.734666756     A.U. after   12 cycles
 SCF Done:  E(RB3LYP) =  -310.736283195     A.U. after   12 cycles
 SCF Done:  E(RB3LYP) =  -310.736435335     A.U. after   11 cycles
 SCF Done:  E(RB3LYP) =  -310.736447349     A.U. after    8 cycles
 SCF Done:  E(RB3LYP) =  -310.736448909     A.U. after    8 cycles
 SCF Done:  E(RB3LYP) =  -310.736449803     A.U. after    8 cycles
 SCF Done:  E(RB3LYP) =  -310.736452524     A.U. after    9 cycles
 SCF Done:  E(RB3LYP) =  -310.736455165     A.U. after   10 cycles
 SCF Done:  E(RB3LYP) =  -310.736455478     A.U. after    9 cycles
 SCF Done:  E(RB3LYP) =  -310.736455483     A.U. after    7 cycles
 SCF Done:  E(RB3LYP) =  -310.736455478     A.U. after    6 cycles
 Optimization completed.
    -- Stationary point found.
 Normal termination of Gaussian 09 at Tue Mar  2 16:36:44 2021.

 --------------------------------------------------------------------
 #N Geom=AllCheck Guess=TCheck SCRF=Check GenChk RB3LYP/6-31G(d) Freq
 --------------------------------------------------------------------

 Structure from the checkpoint file:  5.chk
 -------------------
 Title Card Required
 -------------------
 Charge =  0 Multiplicity = 1

                         Standard orientation:
 ---------------------------------------------------------------------
 Center     Atomic      Atomic             Coordinates (Angstroms)
 Number     Number       Type             X           Y           Z
 ---------------------------------------------------------------------
      1          6           0       -0.945301   -2.357762    0.000000
      2          1           0        0.085082   -2.046587    0.000000
      3          1           0       -1.125949   -3.428586    0.000000
      4          6           0       -1.972785   -1.498063    0.000000
      5          1           0       -2.962235   -1.956793    0.000000
      6          6           0       -2.077182   -0.040260    0.000000
      7          1           0       -3.135961    0.219626    0.000000
      8          6           0       -1.333000    1.110249    0.000000
      9          1           0       -2.030807    1.947385    0.000000
     10          6           0        0.000000    1.731410    0.000000
     11          1           0       -0.192908    2.804061    0.000000
     12          6           0        1.359977    1.563055    0.000000
     13          1           0        1.839181    2.542294    0.000000
     14          6           0        2.414422    0.550385    0.000000
     15          1           0        3.398665    1.020241    0.000000
     16          6           0        2.424862   -0.789434    0.000000
     17          1           0        1.531648   -1.390113    0.000000
     18          1           0        3.367329   -1.329018    0.000000
 ---------------------------------------------------------------------

 SCF Done:  E(RB3LYP) =  -310.736455478     A.U. after    1 cycles

 The electronic state is 1-A'.
 Alpha  occ. eigenvalues --  -10.20142 -10.20112 -10.20009 -10.20000 -10.19607
 Alpha  occ. eigenvalues --  -10.19595 -10.18688 -10.18678  -0.81076  -0.79173
 Alpha  occ. eigenvalues --   -0.75949  -0.71930  -0.65694  -0.60244  -0.55897
 Alpha  occ. eigenvalues --   -0.49264  -0.48363  -0.47048  -0.46785  -0.43363
 Alpha  occ. eigenvalues --   -0.39337  -0.37129  -0.36426  -0.33662  -0.33212
 Alpha  occ. eigenvalues --   -0.32497  -0.30980  -0.26315  -0.20505
 Alpha virt. eigenvalues --   -0.07261   0.00516   0.06318   0.07954   0.09473
 Alpha virt. eigenvalues --    0.11955   0.12289   0.15119   0.15271   0.19578
 Alpha virt. eigenvalues --    0.20059   0.21080   0.22553   0.26470   0.30241

 Mulliken atomic charges:
              1
     1  C   -0.345148
     2  H    0.162988
     3  H    0.144791
     4  C   -0.055253
     5  H    0.126075
     6  C   -0.152472
     7  H    0.126678
     8  C   -0.132533
     9  H    0.124930
    10  C   -0.132496
    11  H    0.124896
    12  C   -0.152774
    13  H    0.126651
    14  C   -0.055666
    15  H    0.125995
    16  C   -0.345668
    17  H    0.163940
    18  H    0.145067
 Sum of Mulliken atomic charges =   0.00000

 Dipole moment (field-independent basis, Debye):
    X=              0.0249    Y=             -0.0573    Z=              0.0000  Tot=              0.0624
 Quadrupole moment (field-independent basis, Debye-Ang):
   XX=            -42.5549   YY=            -43.0321   ZZ=            -53.7381
   XY=              0.2835   XZ=              0.0000   YZ=              0.0000

  Exact polarizability: 138.067   8.315 123.701   0.000   0.000  28.739
 Approx polarizability: 222.507   6.933 209.988   0.000   0.000  41.361

 ******    3 imaginary frequencies (negative Signs) ******

                     1                      2                      3
                    A"                     A"                     A"
 Frequencies --  -385.4365              -157.0264              -124.9585
 Red. masses --     1.3319                 1.7427                 2.6771
 Frc consts  --     0.1166                 0.0253                 0.0246
 IR Inten    --     0.0000                 0.0010                 0.0000

                     4                      5                      6
                    A'                     A'                     A'
 Frequencies --    33.5126               216.0351               309.6261
 Red. masses --     3.0451                 5.4075                 2.6330
 Frc consts  --     0.0020                 0.1487                 0.1487
 IR Inten    --     0.0969                 0.0135                 0.2381

                     7                      8                      9
                    A"                     A"                     A'
 Frequencies --   312.5568               405.7851               450.4066
 Red. masses --     2.4897                 1.9705                 3.1580
 Frc consts  --     0.1433                 0.1912                 0.3775
 IR Inten    --     0.1243                 0.0003                 0.9161

                    10                     11                     12
                    A"                     A'                     A"
 Frequencies --   559.8761               653.3897               682.2336
 Red. masses --     1.2310                 3.6462                 2.7431
 Frc consts  --     0.2274                 0.9171                 0.7523
 IR Inten    --    33.6676                 1.8438                 0.0009

                    13                     14                     15
                    A'                     A"                     A'
 Frequencies --   683.2495               778.9855               806.6376
 Red. masses --     3.8363                 1.5539                 3.3765
 Frc consts  --     1.0552                 0.5556                 1.2944
 IR Inten    --     4.8366                 7.4305                12.4806

                    16                     17                     18
                    A"                     A"                     A'
 Frequencies --   846.4594               871.8318               893.3218
 Red. masses --     1.4599                 1.3551                 3.8992
 Frc consts  --     0.6163                 0.6069                 1.8333
 IR Inten    --     0.0002                 0.0000                12.0606

                    19                     20                     21
                    A"                     A"                     A"
 Frequencies --   918.0467              1013.4333              1019.4451
 Red. masses --     1.3646                 1.2457                 1.2234
 Frc consts  --     0.6776                 0.7538                 0.7491
 IR Inten    --    70.2774                 0.5939                 0.0002

                    22                     23                     24
                    A'                     A"                     A"
 Frequencies --  1029.5799              1033.4650              1045.9286
 Red. masses --     2.1990                 1.1897                 1.1275
 Frc consts  --     1.3734                 0.7487                 0.7268
 IR Inten    --     2.5911                 0.0001                14.7087

                    25                     26                     27
                    A'                     A'                     A'
 Frequencies --  1081.8026              1141.8820              1359.7578
 Red. masses --     1.7737                 2.0392                 1.2619
 Frc consts  --     1.2230                 1.5666                 1.3747
 IR Inten    --    14.0708                 1.2802                 0.1543

                    28                     29                     30
                    A'                     A'                     A'
 Frequencies --  1393.6604              1458.1114              1477.7997
 Red. masses --     1.2220                 1.1684                 1.1788
 Frc consts  --     1.3984                 1.4636                 1.5168
 IR Inten    --     0.0284                 0.0533                 1.7902

                    31                     32                     33
                    A'                     A'                     A'
 Frequencies --  1485.6767              1522.5101              1525.6730
 Red. masses --     1.2162                 1.3143                 1.3034
 Frc consts  --     1.5816                 1.7950                 1.7876
 IR Inten    --     5.2634                 0.0752                 1.2339

                    34                     35                     36
                    A'                     A'                     A'
 Frequencies --  1577.1319              1603.7240              1660.0391
 Red. masses --     1.1340                 4.5895                 3.4640
 Frc consts  --     1.6618                 6.9547                 5.6242
 IR Inten    --     2.0121                 1.3245                 0.0032

                    37                     38                     39
                    A'                     A'                     A'
 Frequencies --  1712.3153              1720.7676              3096.1661
 Red. masses --     3.7347                 3.7905                 1.0816
 Frc consts  --     6.4516                 6.6129                 6.1089
 IR Inten    --     0.1527                 0.6079                 2.4007

                    40                     41                     42
                    A'                     A'                     A'
 Frequencies --  3112.0783              3125.8946              3137.2350
 Red. masses --     1.0837                 1.0857                 1.0868
 Frc consts  --     6.1838                 6.2505                 6.3021
 IR Inten    --     1.0042                 1.9353                17.7740

                    43                     44                     45
                    A'                     A'                     A'
 Frequencies --  3148.0151              3156.6803              3197.3419
 Red. masses --     1.0878                 1.0880                 1.0714
 Frc consts  --     6.3515                 6.3879                 6.4534
 IR Inten    --    97.1585                56.7935                 8.4239

                    46                     47                     48
                    A'                     A'                     A'
 Frequencies --  3202.7920              3329.9289              3371.8242
 Red. masses --     1.0755                 1.1059                 1.0900
 Frc consts  --     6.5003                 7.2253                 7.3012
 IR Inten    --    13.2932                 9.4128                 0.0373

 - Thermochemistry -
 -------------------
 Temperature   298.150 Kelvin.  Pressure   1.00000 Atm.
 Atom     1 has atomic number  6 and mass  12.00000

 Molecular mass:   106.07825 amu.
 Principal axes and moments of inertia in atomic units:
                           1         2         3
     Eigenvalues --   698.161361352.148772050.31013
           X            0.90742  -0.42022   0.00000
           Y            0.42022   0.90742   0.00000
           Z            0.00000   0.00000   1.00000
 This molecule is an asymmetric top.
 Rotational symmetry number  1.
 Warning -- assumption of classical behavior for rotation
           may cause significant error
 Rotational temperatures (Kelvin)      0.12406     0.06406     0.04224
 Rotational constants (GHZ):           2.58499     1.33472     0.88023
    3 imaginary frequencies ignored.
 Zero-point vibrational energy     401721.6 (Joules/Mol)
                                   96.01378 (Kcal/Mol)
 Warning -- explicit consideration of   7 degrees of freedom as
           vibrations may cause significant error
 Vibrational temperatures:     48.22   310.83   445.48   449.70   583.83
          (Kelvin)            648.03   805.54   940.08   981.58   983.04
                             1120.78  1160.57  1217.86  1254.37  1285.29
                             1320.86  1458.10  1466.75  1481.33  1486.92
                             1504.86  1556.47  1642.91  1956.39  2005.16
                             2097.89  2126.22  2137.55  2190.55  2195.10
                             2269.14  2307.40  2388.42  2463.64  2475.80
                             4454.69  4477.58  4497.46  4513.78  4529.29
                             4541.75  4600.26  4608.10  4791.02  4851.30

 Zero-point correction=                           0.153008 (Hartree/Particle)
 Thermal correction to Energy=                    0.159843
 Thermal correction to Enthalpy=                  0.160788
 Thermal correction to Gibbs Free Energy=         0.120763
 Sum of electronic and zero-point Energies=           -310.583448
 Sum of electronic and thermal Energies=              -310.576612
 Sum of electronic and thermal Enthalpies=            -310.575668
 Sum of electronic and thermal Free Energies=         -310.615692

                     E (Thermal)             CV                S
                      KCal/Mol        Cal/Mol-Kelvin    Cal/Mol-Kelvin
 Total                  100.303             26.189             84.238
 Electronic               0.000              0.000              0.000
 Translational            0.889              2.981             39.894
 Rotational               0.889              2.981             29.050
 Vibrational             98.526             20.228             15.294
 Vibration     1          0.594              1.983              5.610
 Vibration     2          0.645              1.817              1.992
 Vibration     3          0.699              1.655              1.364
 Vibration     4          0.701              1.650              1.349
 Vibration     5          0.771              1.458              0.942
 Vibration     6          0.809              1.360              0.795
 Vibration     7          0.915              1.118              0.524

 Optimization completed.
    -- Stationary point found.
 Normal termination of Gaussian 09 at Tue Mar  2 16:39:20 2021.
