 Gaussian 09, Revision C.01,
 Gaussian 09:  EM64L-G09RevC.01 23-Sep-2011

 -----------------------------------------
 # opt freq b3lyp/6-31g* geom=connectivity
 -----------------------------------------

 99/9=1/99;
 -------------------
 Title Card Required
 -------------------
 Charge =  0 Multiplicity = 1

 SCF Done:  E(RB3LYP) =  -310.728474064     A.U. after   14 cycles
 SCF Done:  E(RB3LYP) =  -310.763749210     A.U. after   14 cycles
 SCF Done:  E(RB3LYP) =  -310.786514054     A.U. after   14 cycles
 SCF Done:  E(RB3LYP) =  -310.787517548     A.U. after   12 cycles
 SCF Done:  E(RB3LYP) =  -310.787614692     A.U. after   10 cycles
 SCF Done:  E(RB3LYP) =  -310.787615961     A.U. after    7 cycles
 Optimization completed.
    -- Stationary point found.
 Normal termination of Gaussian 09 at Tue Mar  2 16:34:36 2021.

 --------------------------------------------------------------------
 #N Geom=AllCheck Guess=TCheck SCRF=Check GenChk RB3LYP/6-31G(d) Freq
 --------------------------------------------------------------------

 Structure from the checkpoint file:  6.chk
 -------------------
 Title Card Required
 -------------------
 Charge =  0 Multiplicity = 1

                         Standard orientation:
 ---------------------------------------------------------------------
 Center     Atomic      Atomic             Coordinates (Angstroms)
 Number     Number       Type             X           Y           Z
 ---------------------------------------------------------------------
      1          6           0        2.638185    2.814708    0.000000
      2          1           0        3.255029    1.919778    0.000000
      3          1           0        3.166400    3.763108    0.000000
      4          6           0        1.294855    2.771213    0.000000
      5          1           0        0.760673    3.720975    0.000000
      6          6           0        0.435784    1.590193    0.000000
      7          1           0       -0.632622    1.800600    0.000000
      8          6           0        0.839193    0.296361    0.000000
      9          1           0        1.909756    0.095660    0.000000
     10          6           0        0.000000   -0.889444    0.000000
     11          1           0        0.545222   -1.832419    0.000000
     12          6           0       -1.354258   -0.940168    0.000000
     13          1           0       -1.909548   -0.003475    0.000000
     14          6           0       -2.181169   -2.143966    0.000000
     15          1           0       -3.254660   -1.956621    0.000000
     16          6           0       -1.775665   -3.425347    0.000000
     17          1           0       -0.726786   -3.710525    0.000000
     18          1           0       -2.495011   -4.238385    0.000000
 ---------------------------------------------------------------------

 SCF Done:  E(RB3LYP) =  -310.787615961     A.U. after    1 cycles

 The electronic state is 1-A'.
 Alpha  occ. eigenvalues --  -10.19346 -10.19343 -10.19323 -10.19292 -10.19187
 Alpha  occ. eigenvalues --  -10.19183 -10.18337 -10.18334  -0.82055  -0.79319
 Alpha  occ. eigenvalues --   -0.75256  -0.70086  -0.64545  -0.59476  -0.55009
 Alpha  occ. eigenvalues --   -0.50405  -0.50078  -0.46175  -0.45507  -0.41797
 Alpha  occ. eigenvalues --   -0.41525  -0.37217  -0.36333  -0.34667  -0.34229
 Alpha  occ. eigenvalues --   -0.34205  -0.30948  -0.25904  -0.19494
 Alpha virt. eigenvalues --   -0.06651   0.00820   0.07906   0.08898   0.10692
 Alpha virt. eigenvalues --    0.11230   0.12412   0.13780   0.15590   0.17914
 Alpha virt. eigenvalues --    0.18656   0.19993   0.22501   0.25869   0.28224

 Mulliken atomic charges:
              1
     1  C   -0.339138
     2  H    0.141803
     3  H    0.144837
     4  C   -0.076066
     5  H    0.126901
     6  C   -0.124857
     7  H    0.126195
     8  C   -0.124099
     9  H    0.124557
    10  C   -0.124210
    11  H    0.124561
    12  C   -0.124756
    13  H    0.126178
    14  C   -0.076116
    15  H    0.126824
    16  C   -0.339209
    17  H    0.141791
    18  H    0.144804
 Sum of Mulliken atomic charges =   0.00000

 Dipole moment (field-independent basis, Debye):
    X=             -0.0744    Y=              0.0556    Z=              0.0000  Tot=              0.0929
 Quadrupole moment (field-independent basis, Debye-Ang):
   XX=            -43.6420   YY=            -44.0146   ZZ=            -53.6341
   XY=             -0.5274   XZ=              0.0000   YZ=              0.0000

  Exact polarizability: 128.766  65.408 174.976   0.000   0.000  28.923
 Approx polarizability: 207.134 100.022 277.799   0.000   0.000  42.074

 ******    3 imaginary frequencies (negative Signs) ******

                     1                      2                      3
                    A"                     A"                     A"
 Frequencies --   -64.7202               -60.8325               -35.8698
 Red. masses --     2.2924                 1.7459                 1.9479
 Frc consts  --     0.0057                 0.0038                 0.0015
 IR Inten    --     0.1577                 0.0005                 0.0007

                     4                      5                      6
                    A'                     A"                     A'
 Frequencies --   112.8501               129.6998               241.1455
 Red. masses --     3.5258                 2.0975                 4.3193
 Frc consts  --     0.0265                 0.0208                 0.1480
 IR Inten    --     0.0104                 1.5793                 0.0049

                     7                      8                      9
                    A'                     A"                     A'
 Frequencies --   243.3901               311.8789               485.3796
 Red. masses --     3.1846                 2.3926                 3.1960
 Frc consts  --     0.1111                 0.1371                 0.4436
 IR Inten    --     0.0319                 0.0000                39.9658

                    10                     11                     12
                    A'                     A"                     A"
 Frequencies --   558.6749               621.1449               639.4548
 Red. masses --     2.6579                 1.4089                 1.6516
 Frc consts  --     0.4888                 0.3203                 0.3979
 IR Inten    --     0.0104                 9.9345                 0.0037

                    13                     14                     15
                    A'                     A"                     A"
 Frequencies --   712.7666               847.2580               905.8856
 Red. masses --     3.0663                 1.9182                 1.9027
 Frc consts  --     0.9178                 0.8113                 0.9200
 IR Inten    --     0.2543                 2.6215                 0.0198

                    16                     17                     18
                    A"                     A"                     A'
 Frequencies --   912.8790               913.7497               958.2519
 Red. masses --     1.4094                 1.5061                 3.1009
 Frc consts  --     0.6920                 0.7409                 1.6777
 IR Inten    --    64.0305                 3.9455                 0.0002

                    19                     20                     21
                    A"                     A"                     A'
 Frequencies --  1006.4866              1021.3427              1023.7970
 Red. masses --     1.0879                 1.1194                 2.5838
 Frc consts  --     0.6493                 0.6880                 1.5957
 IR Inten    --    61.6536                 0.0217                 0.4602

                    22                     23                     24
                    A'                     A"                     A"
 Frequencies --  1032.6600              1035.8552              1036.9465
 Red. masses --     1.6826                 1.1184                 1.1180
 Frc consts  --     1.0572                 0.7070                 0.7083
 IR Inten    --     0.0592                 0.4724                11.5848

                    25                     26                     27
                    A'                     A'                     A'
 Frequencies --  1089.8879              1169.6364              1319.2791
 Red. masses --     1.4386                 1.6959                 1.3605
 Frc consts  --     1.0068                 1.3670                 1.3952
 IR Inten    --    18.2527                 1.0061                 1.6391

                    28                     29                     30
                    A'                     A'                     A'
 Frequencies --  1338.8289              1353.1838              1366.7997
 Red. masses --     1.2777                 1.6228                 1.2546
 Frc consts  --     1.3494                 1.7507                 1.3809
 IR Inten    --     0.8000                 1.1379                 0.4123

                    31                     32                     33
                    A'                     A'                     A'
 Frequencies --  1380.9856              1388.0190              1475.3471
 Red. masses --     1.3768                 1.4004                 1.2557
 Frc consts  --     1.5471                 1.5897                 1.6103
 IR Inten    --    25.9882                 0.7981                 5.6257

                    34                     35                     36
                    A'                     A'                     A'
 Frequencies --  1478.0120              1623.9386              1682.0503
 Red. masses --     1.2641                 4.0939                 4.0731
 Frc consts  --     1.6270                 6.3611                 6.7897
 IR Inten    --     0.2440                 0.5487                 7.5801

                    37                     38                     39
                    A'                     A'                     A'
 Frequencies --  1707.0982              1713.7597              3146.8668
 Red. masses --     3.6839                 3.7480                 1.0875
 Frc consts  --     6.3251                 6.4856                 6.3450
 IR Inten    --     2.4992                 0.0658                10.0720

                    40                     41                     42
                    A'                     A'                     A'
 Frequencies --  3151.7500              3154.0092              3166.1460
 Red. masses --     1.0850                 1.0823                 1.0733
 Frc consts  --     6.3501                 6.3437                 6.3392
 IR Inten    --    11.6287                53.0586                 4.4946

                    43                     44                     45
                    A'                     A'                     A'
 Frequencies --  3167.0692              3172.0499              3173.9960
 Red. masses --     1.0769                 1.0745                 1.0780
 Frc consts  --     6.3644                 6.3699                 6.3984
 IR Inten    --     5.4961                 8.0517                18.2199

                    46                     47                     48
                    A'                     A'                     A'
 Frequencies --  3175.9646              3249.2113              3249.4945
 Red. masses --     1.0879                 1.1158                 1.1158
 Frc consts  --     6.4652                 6.9404                 6.9419
 IR Inten    --    49.2895                16.0981                13.9587

 - Thermochemistry -
 -------------------
 Temperature   298.150 Kelvin.  Pressure   1.00000 Atm.
 Atom     1 has atomic number  6 and mass  12.00000

 Molecular mass:   106.07825 amu.
 Principal axes and moments of inertia in atomic units:
                           1         2         3
     Eigenvalues --   167.926492643.642542811.56903
           X            0.57746   0.81642   0.00000
           Y            0.81642  -0.57746   0.00000
           Z            0.00000   0.00000   1.00000
 This molecule is an asymmetric top.
 Rotational symmetry number  1.
 Rotational temperatures (Kelvin)      0.51578     0.03276     0.03081
 Rotational constants (GHZ):          10.74721     0.68267     0.64190
    3 imaginary frequencies ignored.
 Zero-point vibrational energy     398624.9 (Joules/Mol)
                                   95.27364 (Kcal/Mol)
 Warning -- explicit consideration of   7 degrees of freedom as
           vibrations may cause significant error
 Vibrational temperatures:    162.37   186.61   346.95   350.18   448.72
          (Kelvin)            698.35   803.81   893.69   920.03  1025.51
                             1219.01  1303.37  1313.43  1314.68  1378.71
                             1448.11  1469.48  1473.01  1485.77  1490.36
                             1491.93  1568.10  1682.84  1898.15  1926.27
                             1946.93  1966.52  1986.93  1997.05  2122.69
                             2126.53  2336.48  2420.09  2456.13  2465.71
                             4527.63  4534.66  4537.91  4555.37  4556.70
                             4563.87  4566.67  4569.50  4674.88  4675.29

 Zero-point correction=                           0.151828 (Hartree/Particle)
 Thermal correction to Energy=                    0.158849
 Thermal correction to Enthalpy=                  0.159793
 Thermal correction to Gibbs Free Energy=         0.120169
 Sum of electronic and zero-point Energies=           -310.635788
 Sum of electronic and thermal Energies=              -310.628767
 Sum of electronic and thermal Enthalpies=            -310.627823
 Sum of electronic and thermal Free Energies=         -310.667447

                     E (Thermal)             CV                S
                      KCal/Mol        Cal/Mol-Kelvin    Cal/Mol-Kelvin
 Total                   99.679             26.296             83.396
 Electronic               0.000              0.000              0.000
 Translational            0.889              2.981             39.894
 Rotational               0.889              2.981             28.614
 Vibrational             97.902             20.334             14.888
 Vibration     1          0.607              1.939              3.219
 Vibration     2          0.612              1.924              2.950
 Vibration     3          0.658              1.777              1.794
 Vibration     4          0.659              1.774              1.778
 Vibration     5          0.700              1.651              1.352
 Vibration     6          0.841              1.282              0.696
 Vibration     7          0.914              1.121              0.526

 Optimization completed.
    -- Stationary point found.
 Normal termination of Gaussian 09 at Tue Mar  2 16:39:32 2021.
